# vtk DataFile Version 3.0
NavierTwin minimal tetrahedron
ASCII
DATASET UNSTRUCTURED_GRID
POINTS 4 float
0 0 0
1 0 0
0 1 0
0 0 1
CELLS 1 5
4 0 1 2 3
CELL_TYPES 1
10
POINT_DATA 4
SCALARS p float 1
LOOKUP_TABLE default
1 2 3 4
VECTORS U float
1 0 0
0 1 0
0 0 1
1 1 1
